     1C COMP
as
as
as
as 12
Afghanistan

     1C    Exp 2016-05-12 BILL
asdfasf
asdfasdf
asdfasdf
asdfasdf
asdfasdf
asdfasdf 12341234
Andorra

     1C    Exp 2016-05-10 BILL
re
re
asdfasdf
asdfasdf
re
re 54
Rwanda

     1C    Exp 2017-01-01 BILL
41 39 75th street
Apartment 3f
Elmhurst
asdfasdf
New York
New York 11373
USA

